 TITLE = "Aqueous Rate (mol/L/s) " 
VARIABLES = "X"          "Y"              "Z"            "denitrificatio" "glucosetobio"   "Nitrif"         "ironox"        
 ZONE F=POINT,I=           1 , J=           1
   8.50000000E+00   5.00000000E+01   5.00000000E+01   2.22617809E-04   6.91719804E-03   2.39000948E-08   1.00000000E-04
