 TITLE = "Mineral Area (m^2/m^3 PM)" 
VARIABLES = "X"          "Y"              "Z"            "C5H7O2NO2(s)"   "Albite"         "Anatase"        "Calcite"        "Chamosite"      "Anthophyllite"  "Kaolinite"      "Microcline"     "Muscovite"      "Quartz"         "Goethite"       "Lepidocrocite"  "Epidote"        "Magnetite"     
 ZONE I=           1 , J=           1 , K=           1  F=POINT
   8.50000000E+00   5.00000000E+01   5.00000000E+01   1.00036733E+00   9.99999997E+01   9.99999999E+01   9.99998565E+01   9.06652076E+03   1.85943942E+04   1.56945519E+04   1.92095252E+05   9.28073833E+04   1.00000000E+02   9.99996366E+01   1.00000515E+02   9.99999819E+01   9.99999899E+01
