 TITLE = "Total Concentrations (log mol/kgw)" 
VARIABLES = "X"          "Y"              "Z"            "H+"             "C5H7O2NO2(aq)"  "Acetic_acid(aq" "C6H12O6"        "NH4+"           "NO3-"           "N2(aq)"         "O2(aq)"         "CO2(aq)"        "SiO2(aq)"       "Al+++"          "Mg++"           "Ca++"           "K+"             "Fe++"           "Fe+++"          "Ti(OH)4(aq)"    "Na+"            "OH-"            "NH3(aq)"        "CO3--"          "HCO3-"          "AlO2-"          "Fe(OH)2(aq)"    "FeOH+"          "FeNO3++"        "FeCO3(aq)"      "FeCO3+"         "KOH(aq)"        "MgCO3(aq)"      "MgHCO3+"        "CaCO3(aq)"      "CaHCO3+"        "CaOH+"          "NaOH(aq)"       "NaCO3-"         "NaHCO3(aq)"     "HSiO3-"         "NaHSiO3(aq)"    "H2SiO4--"       "HAlO2(aq)"      "NaAlO2(aq)"    
 ZONE I=           1 , J=           1 , K=           1  F=POINT
   8.50000000E+00   5.00000000E+01   5.00000000E+01  -5.49676256E+00  -1.50001034E+01  -3.76931473E-08  -3.85467643E+00  -3.76590493E+00  -5.89795599E+00  -4.84966008E+00  -3.60578159E+00  -3.63103544E+00  -3.26556962E+00  -8.80006518E+00  -5.06872508E+00  -3.45485230E+00  -3.42780228E+00  -4.96127962E+00  -1.48991692E+01  -8.55870483E+00  -4.62597531E+00  -9.39936088E+00  -7.77894855E+00  -9.74436187E+00  -4.68114131E+00  -1.26222372E+01  -1.45987047E+01  -8.99463333E+00  -1.98826232E+01  -9.80515094E+00  -1.39479072E+01  -1.23920287E+01  -1.20444585E+01  -8.72962177E+00  -1.01919907E+01  -7.10126756E+00  -1.08382060E+01  -1.47609631E+01  -1.36237516E+01  -8.96802330E+00  -8.06022114E+00  -1.08103831E+01  -1.51418673E+01  -1.10787531E+01  -1.81268203E+01
