 TITLE = "Total Concentrations (log mol/kgw)" 
VARIABLES = "X"          "Y"              "Z"            "H+"             "C5H7O2NO2(aq)"  "Acetic_acid(aq" "C6H12O6"        "NH4+"           "NO3-"           "N2(aq)"         "O2(aq)"         "CO2(aq)"        "SiO2(aq)"       "Al+++"          "Mg++"           "Ca++"           "K+"             "Fe++"           "Fe+++"          "Ti(OH)4(aq)"    "Na+"            "OH-"            "NH3(aq)"        "CO3--"          "HCO3-"          "AlO2-"          "Fe(OH)2(aq)"    "FeOH+"          "FeNO3++"        "FeCO3(aq)"      "FeCO3+"         "KOH(aq)"        "MgCO3(aq)"      "MgHCO3+"        "CaCO3(aq)"      "CaHCO3+"        "CaOH+"          "NaOH(aq)"       "NaCO3-"         "NaHCO3(aq)"     "HSiO3-"         "NaHSiO3(aq)"    "H2SiO4--"       "HAlO2(aq)"      "NaAlO2(aq)"    
 ZONE I=           1 , J=           1 , K=           1  F=POINT
   8.50000000E+00   5.00000000E+01   5.00000000E+01  -5.56216399E+00  -1.50001037E+01  -6.83617129E-08  -3.85903974E+00  -3.76591209E+00  -5.93854803E+00  -4.84792797E+00  -3.60620312E+00  -3.62474999E+00  -3.26743741E+00  -9.05364371E+00  -5.06616013E+00  -3.45210440E+00  -3.42892269E+00  -4.95219779E+00  -1.50952570E+01  -8.55870381E+00  -4.62578121E+00  -9.33391871E+00  -7.71355723E+00  -9.60715020E+00  -4.60941360E+00  -1.26142860E+01  -1.44588639E+01  -8.92019159E+00  -2.01194145E+01  -9.65902431E+00  -1.40070209E+01  -1.23277504E+01  -1.19048456E+01  -8.65540801E+00  -1.00521980E+01  -7.02687399E+00  -1.07700982E+01  -1.46953698E+01  -1.34864304E+01  -8.89614432E+00  -7.99664668E+00  -1.07466574E+01  -1.50128080E+01  -1.11362441E+01  -1.81187178E+01
