 TITLE = "Gas oncentration (bars)" 
VARIABLES = "X"          "Y"              "Z"            "CO2(g)"         "O2(g)"         
 ZONE I=           1 , J=           1 , K=           1  F=POINT
   8.50000000E+00   5.00000000E+01   5.00000000E+01   2.96415147E-03   1.13516917E-01
