 TITLE = "Porosity" 
 VARIABLES = "X"          "Y"              "Z"          "Porosity" 
 ZONE I=           1 , J=           1 , K=           1  F=POINT
   8.50000000E+00   5.00000000E+01   5.00000000E+01   3.14155409E-01
