 TITLE = "Mineral Saturation State (log Q/Keq)" 
VARIABLES = "X"          "Y"              "Z"            "C5H7O2NO2(s)"   "Albite"         "Anatase"        "Calcite"        "Chamosite"      "Anthophyllite"  "Kaolinite"      "Microcline"     "Muscovite"      "Quartz"         "Goethite"       "Lepidocrocite"  "Epidote"        "Magnetite"     
 ZONE I=           1 , J=           1 , K=           1  F=POINT
   8.50000000E+00   5.00000000E+01   5.00000000E+01   5.04681127E-08  -4.59632123E+00  -4.17198282E-08  -4.77867653E+00  -1.43577291E+01  -5.75778238E+01  -4.35361900E-01   8.78268800E-02  -2.11950082E+00   1.35152184E+00  -6.43716880E-03   8.92729773E-02  -1.66059025E+01  -4.69815350E+00
