 TITLE = "Total Concentrations (mol/kgw)" 
VARIABLES = "X"          "Y"              "Z"            "H+"             "C5H7O2NO2(aq)"  "Acetic_acid(aq" "C6H12O6"        "NH4+"           "NO3-"           "N2(aq)"         "O2(aq)"         "CO2(aq)"        "SiO2(aq)"       "Al+++"          "Mg++"           "Ca++"           "K+"             "Fe++"           "Fe+++"          "Ti(OH)4(aq)"    "Na+"           
 ZONE I=           1 , J=           1 , K=           1  F=POINT
   8.50000000E+00   5.00000000E+01   5.00000000E+01  -1.77619403E-05   9.99761437E-16   9.99999913E-01   1.39740892E-04   1.71449869E-04   1.26486428E-06   1.41364333E-05   2.47866797E-04   2.54785279E-04   5.42546942E-04   1.59323508E-09   8.53826639E-06   3.50950421E-04   3.73420085E-04   1.09336899E-05   1.25357276E-14   2.76245396E-09   2.36616307E-05
