 TITLE = "Total Concentrations (mol/kgw)" 
VARIABLES = "X"          "Y"              "Z"            "H+"             "C5H7O2NO2(aq)"  "Acetic_acid(aq" "C6H12O6"        "NH4+"           "NO3-"           "N2(aq)"         "O2(aq)"         "CO2(aq)"        "SiO2(aq)"       "Al+++"          "Mg++"           "Ca++"           "K+"             "Fe++"           "Fe+++"          "Ti(OH)4(aq)"    "Na+"           
 ZONE I=           1 , J=           1 , K=           1  F=POINT
   8.50000000E+00   5.00000000E+01   5.00000000E+01  -2.19694475E-05   9.99760741E-16   9.99999843E-01   1.38343961E-04   1.71449748E-04   1.15199842E-06   1.41929269E-05   2.47626335E-04   2.61952183E-04   5.40219997E-04   8.91354755E-10   8.58917945E-06   3.53192343E-04   3.72457959E-04   1.11649663E-05   1.06426918E-14   2.76246049E-09   2.36724037E-05
