 TITLE = "Total Component Concentration in Minerals (mol/m^3 PM)" 
VARIABLES = "X"          "Y"              "Z"            "H+"             "C5H7O2NO2(aq)"  "Acetic_acid(aq" "C6H12O6"        "NH4+"           "NO3-"           "N2(aq)"         "O2(aq)"         "CO2(aq)"        "SiO2(aq)"       "Al+++"          "Mg++"           "Ca++"           "K+"             "Fe++"           "Fe+++"          "Ti(OH)4(aq)"    "Na+"           
 ZONE I=           1 , J=           1 , K=           1  F=POINT
   8.50000000E+00   5.00000000E+01   5.00000000E+01  -1.41510080E+04   3.60935920E-02   0.00000000E+00   0.00000000E+00   0.00000000E+00   0.00000000E+00   0.00000000E+00   0.00000000E+00   2.44549464E+02   2.50178748E+04   2.34167279E+03   1.66697422E+02   3.70177320E+02   9.23171019E+02   2.39216812E+02   1.33280534E+03   7.15779999E+00   6.52219450E+02
