 TITLE = "Velocity (m/yr)" 
VARIABLES = "X"          "Y"              "Z"           "X Velocity"     "Y-Velocity"     "Z-Velocity" 
 ZONE I=           1 , J=           1 , K=           1  F=POINT
    8.5000000E+00    5.0000000E+01    5.0000000E+01    0.0000000E+00    0.0000000E+00    0.0000000E+00
